# Region type : patch outflow
#   Faces  : 78
#   Area   : 1.987766e-04
#        Time	sum(rhoPhi)
   0.00357143	0.000000e+00
   0.00615079	3.571860e-14
   0.00907407	-7.495689e-07
    0.0113477	-9.455098e-07
    0.0137635	-1.453461e-06
    0.0163518	-1.718983e-06
    0.0191558	-2.028156e-06
    0.0222403	-2.093242e-06
    0.0253247	-2.193416e-06
    0.0284091	-2.200281e-06
    0.0314935	-2.191004e-06
    0.0345779	-2.279068e-06
    0.0376623	-2.210904e-06
    0.0401299	-2.104222e-06
    0.0425974	-2.037075e-06
    0.0450649	-2.010894e-06
    0.0475325	-2.000463e-06
         0.05	-1.990672e-06
    0.0526316	-1.988299e-06
    0.0552632	-2.009624e-06
    0.0580592	-2.064407e-06
    0.0606805	-2.157795e-06
    0.0633018	-4.262081e-06
    0.0657484	-4.518938e-06
    0.0681949	-4.834079e-06
    0.0706414	-5.157924e-06
     0.073088	-4.724660e-06
    0.0755345	-5.809844e-06
    0.0779811	-6.180084e-06
    0.0804276	-5.766882e-06
    0.0828742	-5.470281e-06
    0.0853207	-7.430917e-06
    0.0877673	-7.671824e-06
    0.0902138	-8.000606e-06
    0.0926604	-8.442511e-06
    0.0951069	-8.052756e-06
    0.0975535	-9.185306e-06
          0.1	-9.607674e-06
     0.102381	-9.248120e-06
     0.104762	-8.969444e-06
     0.107143	-1.074460e-05
     0.109524	-1.112944e-05
     0.111905	-1.151369e-05
     0.114286	-1.268516e-05
     0.116518	-1.227933e-05
      0.11875	-1.259815e-05
     0.120982	-1.366473e-05
       0.1234	-1.463515e-05
     0.125818	-1.371986e-05
     0.128237	-1.402171e-05
     0.130655	-1.439269e-05
     0.132804	-1.398494e-05
     0.134954	-1.495144e-05
     0.137103	-1.527594e-05
     0.139253	-1.484332e-05
     0.141044	-1.450970e-05
     0.142835	-1.591790e-05
     0.144626	-1.611753e-05
     0.146418	-1.629286e-05
     0.148209	-1.703004e-05
         0.15	-1.661525e-05
     0.151852	-1.674180e-05
     0.153704	-1.734714e-05
     0.155556	-1.787046e-05
     0.157488	-1.694068e-05
      0.15942	-1.718791e-05
     0.161353	-1.800398e-05
     0.163193	-1.736731e-05
     0.165033	-1.746337e-05
     0.166874	-1.801312e-05
     0.168714	-1.737714e-05
     0.170554	-1.748407e-05
     0.172395	-1.792902e-05
     0.174235	-1.751679e-05
     0.176217	-1.685583e-05
     0.178199	-1.746728e-05
     0.180379	-1.739351e-05
     0.182559	-1.733148e-05
     0.184739	-1.771681e-05
     0.186919	-1.803081e-05
     0.189099	-1.709435e-05
      0.19128	-1.688873e-05
     0.193024	-1.743233e-05
     0.194768	-1.662729e-05
     0.196512	-1.645302e-05
     0.198256	-1.697409e-05
          0.2	-1.612005e-05
     0.201667	-1.597609e-05
     0.203226	-1.627599e-05
     0.204735	-1.564739e-05
     0.206195	-1.486158e-05
     0.207655	-1.532599e-05
     0.209115	-1.496586e-05
     0.210575	-1.441806e-05
     0.212092	-1.397792e-05
     0.213608	-1.453614e-05
      0.21519	-1.429779e-05
     0.216848	-1.349510e-05
     0.218505	-1.379188e-05
     0.220255	-1.359979e-05
     0.222114	-1.297763e-05
     0.223973	-1.235727e-05
     0.225975	-1.175418e-05
     0.227823	-1.117525e-05
     0.229529	-1.173456e-05
     0.231235	-1.166741e-05
     0.232941	-1.060051e-05
     0.234837	-1.101077e-05
     0.236521	-1.064849e-05
     0.238206	-9.796518e-06
     0.239891	-9.959618e-06
     0.241335	-9.743557e-06
     0.242779	-9.075047e-06
     0.244223	-8.417710e-06
     0.245668	-8.707028e-06
     0.246751	-8.402967e-06
     0.247834	-7.890676e-06
     0.248917	-7.464853e-06
         0.25	-7.680686e-06
      0.25119	-7.453337e-06
     0.252475	-6.890425e-06
     0.253759	-6.394046e-06
     0.255081	-6.546701e-06
     0.256263	-6.301802e-06
     0.257329	-5.749492e-06
     0.258345	-5.289168e-06
     0.259314	-5.569764e-06
     0.260283	-5.324871e-06
     0.261252	-4.843729e-06
     0.262245	-4.488230e-06
     0.263189	-4.265788e-06
     0.264087	-4.088059e-06
     0.264963	-3.915675e-06
     0.265861	-3.840836e-06
     0.266784	-3.635132e-06
     0.267761	-3.430282e-06
     0.268768	-3.276058e-06
     0.269809	-3.172463e-06
     0.270927	-3.092092e-06
      0.27209	-3.018758e-06
     0.273304	-2.931232e-06
     0.274575	-2.809774e-06
     0.275913	-1.713679e-06
     0.277251	-1.409549e-06
     0.278673	-1.457459e-06
     0.280095	-1.400949e-06
     0.281626	-1.021143e-06
     0.283039	-8.534616e-07
     0.284453	2.945693e-07
     0.285748	6.146097e-07
     0.287044	5.901370e-07
      0.28834	6.990724e-07
     0.289635	1.596899e-06
     0.290931	1.831289e-06
     0.292226	1.883628e-06
     0.293522	2.124897e-06
     0.294818	2.168748e-06
     0.296113	2.398559e-06
     0.297409	3.192471e-06
     0.298704	3.613494e-06
          0.3	3.734473e-06
     0.301429	3.914593e-06
     0.302816	4.029459e-06
     0.304164	4.164946e-06
     0.305553	4.319799e-06
     0.306942	5.363900e-06
     0.308378	5.765317e-06
     0.309813	5.828387e-06
     0.311248	5.995967e-06
     0.312739	6.134243e-06
     0.314229	7.038949e-06
     0.315784	7.404662e-06
      0.31734	7.413885e-06
     0.318895	7.530334e-06
     0.320532	7.691984e-06
     0.322169	7.851692e-06
     0.323806	8.013560e-06
     0.325347	9.011862e-06
     0.326797	9.530992e-06
     0.328162	9.781317e-06
     0.329527	9.707252e-06
     0.330806	9.804589e-06
     0.332086	1.047779e-05
     0.333366	1.131270e-05
     0.334645	1.099401e-05
     0.335925	1.048463e-05
     0.337204	1.142269e-05
     0.338484	1.177272e-05
     0.339763	1.166410e-05
     0.341043	1.164722e-05
     0.342323	1.165572e-05
     0.343602	1.167409e-05
     0.344882	1.253957e-05
     0.346161	1.291028e-05
     0.347441	1.298774e-05
      0.34872	1.302396e-05
         0.35	1.300412e-05
     0.351429	1.298286e-05
     0.352995	1.296620e-05
     0.354736	1.297385e-05
     0.356477	1.431360e-05
     0.358218	1.442814e-05
     0.359959	1.423230e-05
     0.361627	1.407428e-05
     0.363296	1.400767e-05
     0.364964	1.549604e-05
     0.366633	1.538904e-05
     0.368221	1.506052e-05
     0.369735	1.492388e-05
     0.371248	1.493099e-05
     0.372761	1.603995e-05
     0.374195	1.630619e-05
     0.375713	1.606720e-05
     0.377231	1.584065e-05
     0.378749	1.573089e-05
     0.380267	1.569175e-05
     0.381785	1.570152e-05
     0.383303	1.673412e-05
     0.384821	1.682832e-05
     0.386338	1.680910e-05
     0.387856	1.674656e-05
     0.389374	1.626870e-05
     0.390892	1.655179e-05
      0.39241	1.652307e-05
     0.393928	1.676463e-05
     0.395446	1.709218e-05
     0.396964	1.722341e-05
     0.398482	1.728015e-05
     0.399241	1.739847e-05
          0.4	1.752831e-05
     0.400909	1.768471e-05
     0.401954	1.786179e-05
     0.403125	1.803099e-05
     0.404428	1.817888e-05
     0.405852	1.829688e-05
     0.407323	1.838270e-05
     0.408847	1.843563e-05
     0.410372	1.740726e-05
     0.411957	1.739068e-05
     0.413611	1.769303e-05
     0.415344	1.798007e-05
     0.417168	1.824421e-05
     0.418992	1.714530e-05
     0.420714	1.702302e-05
     0.422437	1.743962e-05
      0.42416	1.769544e-05
     0.426005	1.785219e-05
     0.427851	1.672434e-05
     0.429697	1.658926e-05
     0.431543	1.689556e-05
     0.433388	1.710559e-05
     0.435234	1.727064e-05
      0.43708	1.601823e-05
     0.438926	1.587704e-05
     0.440771	1.620565e-05
     0.442617	1.637227e-05
     0.444463	1.644269e-05
     0.445847	1.519211e-05
     0.447231	1.505511e-05
     0.448616	1.518470e-05
         0.45	1.522917e-05
     0.451563	1.524826e-05
     0.453292	1.522719e-05
     0.455161	1.518711e-05
      0.45711	1.511974e-05
      0.45906	1.414046e-05
     0.461009	1.342104e-05
     0.462959	1.345255e-05
     0.464908	1.353475e-05
     0.466858	1.355668e-05
     0.468699	1.349856e-05
     0.470438	1.205796e-05
     0.472177	1.168173e-05
     0.473916	1.170602e-05
     0.475655	1.176529e-05
     0.477278	1.176496e-05
     0.478901	1.058813e-05
     0.480524	9.251732e-06
     0.482147	9.989759e-06
      0.48377	9.733551e-06
     0.485393	9.143413e-06
     0.487016	8.551320e-06
     0.488639	8.027960e-06
     0.490262	7.515326e-06
     0.491653	8.376460e-06
     0.493044	7.964267e-06
     0.494435	7.290916e-06
     0.495827	7.160947e-06
     0.497218	6.978243e-06
     0.498609	6.323000e-06
          0.5	6.198959e-06
     0.501515	6.035847e-06
     0.502984	5.743681e-06
     0.504454	5.421983e-06
     0.505923	5.092694e-06
     0.507392	4.759621e-06
     0.508861	4.427397e-06
     0.510331	4.106793e-06
       0.5118	3.810503e-06
     0.513269	3.544678e-06
     0.514738	3.305665e-06
     0.516208	3.083814e-06
     0.517677	2.865967e-06
      0.51897	2.640660e-06
     0.520163	2.429917e-06
     0.521311	2.218980e-06
     0.522414	1.998502e-06
     0.523518	1.777167e-06
     0.524621	1.551289e-06
     0.525724	1.317673e-06
     0.526828	1.082400e-06
     0.527881	8.455147e-07
     0.528887	6.188712e-07
     0.529846	4.024360e-07
     0.530806	1.904909e-07
     0.531766	-2.664659e-08
     0.532779	-2.357305e-07
     0.533855	-4.498508e-07
     0.534864	-6.581816e-07
      0.53581	-8.944870e-07
     0.536756	-1.144795e-06
     0.537702	-1.406098e-06
     0.538648	-1.673945e-06
     0.539594	-1.945003e-06
      0.54054	-2.216983e-06
     0.541591	-2.487815e-06
     0.542642	-2.769058e-06
     0.543693	-3.055300e-06
     0.544744	-3.342222e-06
     0.545796	-3.630318e-06
     0.546847	-3.920108e-06
     0.547898	-4.212899e-06
     0.548949	-4.509325e-06
         0.55	-4.809381e-06
     0.551163	-5.112209e-06
     0.552448	-5.429516e-06
     0.553733	-5.767780e-06
     0.555094	-6.115923e-06
     0.556543	-6.474466e-06
     0.557901	-6.845450e-06
     0.559216	-7.211944e-06
     0.560532	-7.567809e-06
     0.561893	-7.914800e-06
     0.563254	-8.258153e-06
     0.564566	-8.596661e-06
     0.565929	-8.924030e-06
     0.567292	-9.246347e-06
     0.568714	-9.563115e-06
     0.570204	-9.878771e-06
     0.571694	-1.019814e-05
     0.573183	-1.051885e-05
     0.574673	-1.083983e-05
     0.576256	-1.116077e-05
      0.57774	-1.148835e-05
     0.579131	-1.181209e-05
     0.580622	-1.212427e-05
     0.582237	-1.243644e-05
     0.584013	-1.275642e-05
     0.585789	-1.309012e-05
     0.587566	-1.343127e-05
     0.589342	-1.377559e-05
     0.590865	-1.412129e-05
     0.592387	-1.444964e-05
      0.59391	-1.476698e-05
     0.595432	-1.507914e-05
     0.596955	-1.538838e-05
     0.598477	-1.569652e-05
          0.6	-1.600393e-05
     0.601667	-1.631076e-05
     0.603226	-1.662738e-05
     0.604785	-1.694387e-05
       0.6064	-1.726102e-05
     0.608015	-1.758489e-05
     0.609629	-1.791420e-05
     0.611244	-1.824795e-05
     0.612859	-1.858486e-05
     0.614407	-1.892335e-05
      0.61589	-1.925666e-05
     0.617311	-1.958015e-05
     0.618673	-1.989109e-05
     0.620035	-2.018795e-05
     0.621397	-2.047508e-05
     0.622759	-2.075555e-05
     0.624121	-2.103109e-05
     0.625559	-2.130304e-05
     0.626997	-2.157803e-05
      0.62853	-2.185469e-05
     0.630064	-2.213853e-05
     0.631725	-2.242666e-05
     0.633386	-2.272461e-05
     0.635048	-2.302749e-05
     0.636709	-2.333011e-05
      0.63837	-2.362931e-05
     0.640032	-2.392194e-05
     0.641693	-2.420570e-05
     0.643355	-2.447888e-05
     0.645016	-2.474056e-05
     0.646677	-2.499040e-05
     0.648339	-2.522873e-05
         0.65	-2.545641e-05
     0.651786	-2.567458e-05
     0.653571	-2.589024e-05
     0.655357	-2.610284e-05
     0.657074	-2.631154e-05
     0.658791	-2.651313e-05
     0.660508	-2.670766e-05
     0.662225	-2.689499e-05
     0.663942	-2.707436e-05
     0.665659	-2.724512e-05
     0.667376	-2.740637e-05
     0.669093	-2.755739e-05
      0.67081	-2.769803e-05
     0.672527	-2.782864e-05
     0.674245	-2.794997e-05
     0.675962	-2.806301e-05
     0.677679	-2.816876e-05
     0.679396	-2.826799e-05
     0.681113	-2.836121e-05
      0.68283	-2.844871e-05
     0.684547	-2.853043e-05
     0.686264	-2.860612e-05
     0.687981	-2.867549e-05
     0.689698	-2.873824e-05
     0.691415	-2.879406e-05
     0.693132	-2.884269e-05
     0.694849	-2.888407e-05
     0.696566	-2.891822e-05
     0.698283	-2.894526e-05
          0.7	-2.896547e-05
     0.701724	-2.897928e-05
     0.703448	-2.898708e-05
     0.705172	-2.898910e-05
     0.706897	-2.898538e-05
     0.708621	-2.897586e-05
     0.710345	-2.896032e-05
     0.712069	-2.893854e-05
     0.713793	-2.891015e-05
     0.715302	-2.887483e-05
      0.71669	-2.883386e-05
     0.717923	-2.878736e-05
     0.719029	-2.873639e-05
     0.720062	-2.868175e-05
     0.721028	-2.862315e-05
     0.721962	-2.856047e-05
     0.722867	-2.849310e-05
     0.723742	-2.842106e-05
     0.724589	-2.834486e-05
     0.725436	-2.826500e-05
     0.726283	-2.818070e-05
     0.727161	-2.809175e-05
      0.72804	-2.799667e-05
     0.728955	-2.789656e-05
     0.729911	-2.779034e-05
     0.730916	-2.767728e-05
     0.731976	-2.755727e-05
     0.733103	-2.743002e-05
     0.734229	-2.729533e-05
     0.735442	-2.715685e-05
     0.736766	-2.701240e-05
     0.738089	-2.686003e-05
     0.739413	-2.670444e-05
     0.740736	-2.654843e-05
     0.742059	-2.639348e-05
     0.743383	-2.624057e-05
     0.744706	-2.609015e-05
      0.74603	-2.594217e-05
     0.747353	-2.579653e-05
     0.748677	-2.565317e-05
         0.75	-2.551204e-05
     0.751351	-2.537310e-05
     0.752703	-2.523489e-05
     0.754054	-2.509732e-05
     0.755405	-2.495991e-05
     0.756757	-2.482183e-05
     0.758108	-2.468261e-05
     0.759417	-2.454173e-05
     0.760726	-2.440046e-05
     0.762035	-2.425762e-05
      0.76326	-2.411228e-05
     0.764485	-2.396773e-05
     0.765669	-2.382188e-05
     0.766852	-2.367509e-05
     0.768036	-2.352559e-05
     0.769266	-2.337178e-05
     0.770495	-2.321023e-05
     0.771778	-2.304100e-05
     0.773122	-2.286115e-05
     0.774536	-2.266784e-05
     0.775951	-2.245874e-05
     0.777454	-2.223678e-05
     0.778957	-2.107547e-05
     0.780576	-2.089706e-05
     0.782195	-2.106505e-05
     0.783813	-2.030463e-05
     0.785432	-1.939212e-05
     0.787051	-1.961290e-05
     0.788669	-1.928266e-05
     0.790288	-1.854315e-05
     0.791907	-1.858461e-05
     0.793525	-1.831292e-05
     0.795144	-1.765201e-05
     0.796763	-1.705445e-05
     0.797842	-1.651686e-05
     0.798921	-1.696173e-05
          0.8	-1.670508e-05
      0.80122	-1.616558e-05
     0.802575	-1.567972e-05
     0.804057	-1.588389e-05
     0.805588	-1.551103e-05
     0.807119	-1.476700e-05
     0.808651	-1.475022e-05
     0.810182	-1.482974e-05
     0.811775	-1.401864e-05
     0.813368	-1.370397e-05
      0.81496	-1.360958e-05
     0.816553	-1.285056e-05
     0.818146	-1.204729e-05
     0.819739	-1.201713e-05
     0.821331	-1.153971e-05
     0.822924	-1.084147e-05
     0.824517	-1.021919e-05
     0.826109	-9.829319e-06
     0.827702	-9.365580e-06
     0.829189	-9.038317e-06
     0.830675	-8.792926e-06
     0.832056	-8.455659e-06
     0.833436	-8.247769e-06
     0.834816	-7.952871e-06
     0.836082	-7.634660e-06
     0.837347	-7.348450e-06
     0.838612	-7.109111e-06
     0.839877	-6.904051e-06
     0.841143	-6.709262e-06
     0.842408	-6.499174e-06
     0.843673	-5.405114e-06
     0.844939	-4.993260e-06
     0.846204	-4.978207e-06
     0.847469	-4.871754e-06
     0.848735	-3.868089e-06
         0.85	-3.549406e-06
     0.851389	-3.511137e-06
     0.852908	-3.328021e-06
     0.854532	-2.318633e-06
     0.856156	-1.849265e-06
      0.85778	-1.803559e-06
     0.859343	-9.082216e-07
     0.860907	-4.126463e-08
     0.862411	9.995858e-09
     0.863914	5.064507e-07
     0.865418	1.282054e-06
     0.866921	1.846074e-06
     0.868496	2.557020e-06
     0.870072	3.235677e-06
     0.871647	2.768809e-06
     0.873222	3.315650e-06
     0.874797	4.029421e-06
     0.876372	4.709937e-06
     0.877948	4.750645e-06
     0.879523	5.289719e-06
     0.881098	6.212502e-06
     0.882673	6.823156e-06
     0.884248	7.459454e-06
     0.885823	8.006793e-06
     0.887399	8.576921e-06
     0.888974	8.038351e-06
     0.890549	8.590730e-06
     0.892124	9.213719e-06
     0.893699	9.916895e-06
     0.895274	9.983765e-06
      0.89685	9.754435e-06
     0.898425	1.066438e-05
          0.9	1.139466e-05
     0.901667	1.185104e-05
     0.903333	1.227028e-05
     0.904839	1.234662e-05
      0.90625	1.281758e-05
     0.907617	1.316681e-05
     0.908902	1.365137e-05
     0.910147	1.428536e-05
     0.911355	1.473712e-05
     0.912526	1.508047e-05
     0.913735	1.541580e-05
     0.914943	1.580740e-05
     0.916152	1.623747e-05
     0.917361	1.668131e-05
      0.91857	1.711939e-05
     0.919779	1.754487e-05
     0.920988	1.795855e-05
     0.922249	1.836218e-05
      0.92357	1.877145e-05
     0.924962	1.918506e-05
     0.926434	1.960251e-05
     0.928005	2.002621e-05
     0.929697	2.046134e-05
     0.931389	2.091531e-05
     0.933081	2.135822e-05
     0.934773	2.178991e-05
     0.936296	2.220996e-05
     0.937818	2.257728e-05
     0.939172	2.293062e-05
     0.940525	2.323159e-05
     0.941879	2.351833e-05
     0.943232	2.379215e-05
     0.944586	2.405434e-05
     0.945939	2.430668e-05
     0.947293	2.455041e-05
     0.948646	2.478705e-05
         0.95	2.501784e-05
     0.951471	2.524387e-05
     0.953036	2.548500e-05
     0.954551	2.573823e-05
     0.956017	2.598128e-05
     0.957483	2.621470e-05
     0.959002	2.644628e-05
      0.96052	2.668464e-05
     0.961982	2.692270e-05
      0.96334	2.715271e-05
     0.964698	2.736772e-05
     0.966056	2.758420e-05
     0.967413	2.780256e-05
      0.96883	2.802325e-05
     0.970315	2.825590e-05
     0.971877	2.850180e-05
     0.973439	2.876238e-05
     0.975099	2.902447e-05
     0.976759	2.930313e-05
     0.978419	2.958168e-05
     0.980079	2.985941e-05
      0.98174	3.013553e-05
       0.9834	3.040923e-05
      0.98506	3.067984e-05
      0.98672	3.094665e-05
      0.98838	3.120897e-05
      0.99004	3.146587e-05
       0.9917	3.171633e-05
      0.99336	3.195922e-05
      0.99502	3.219289e-05
      0.99668	3.241714e-05
      0.99834	3.263062e-05
            1	3.283096e-05
      1.00179	3.301753e-05
      1.00364	3.320334e-05
      1.00549	3.338132e-05
      1.00735	3.354399e-05
       1.0092	3.252270e-05
      1.01106	3.271509e-05
      1.01291	3.328930e-05
      1.01477	3.279352e-05
      1.01662	3.219658e-05
      1.01848	3.285361e-05
      1.02033	3.278876e-05
      1.02218	3.260447e-05
      1.02404	3.238316e-05
      1.02589	3.217235e-05
      1.02775	3.194166e-05
      1.02946	3.285211e-05
      1.03117	3.268114e-05
      1.03288	3.234263e-05
      1.03459	3.208684e-05
      1.03631	3.234295e-05
      1.03802	3.247211e-05
      1.03973	3.226239e-05
      1.04144	3.198082e-05
      1.04315	3.169539e-05
      1.04486	3.141300e-05
      1.04658	3.112935e-05
      1.04772	3.085360e-05
      1.04886	3.164499e-05
         1.05	3.169787e-05
      1.05128	3.137759e-05
      1.05271	3.097430e-05
      1.05429	3.056219e-05
      1.05598	3.091348e-05
      1.05768	3.091413e-05
      1.05937	3.052801e-05
      1.06106	3.008102e-05
      1.06283	2.963482e-05
       1.0646	3.003843e-05
      1.06637	2.993384e-05
      1.06814	2.943587e-05
      1.07002	2.893956e-05
      1.07178	2.841209e-05
      1.07354	2.880089e-05
      1.07531	2.869059e-05
      1.07707	2.818311e-05
      1.07884	2.763958e-05
       1.0806	2.708850e-05
      1.08236	2.747316e-05
      1.08397	2.731159e-05
      1.08557	2.680335e-05
      1.08717	2.628952e-05
      1.08878	2.577112e-05
      1.09038	2.609104e-05
      1.09198	2.592977e-05
      1.09359	2.544165e-05
      1.09519	2.493336e-05
      1.09679	2.441118e-05
       1.0984	2.389842e-05
          1.1	2.428864e-05
      1.10172	2.413375e-05
      1.10351	2.357648e-05
       1.1053	2.296827e-05
      1.10709	2.235219e-05
      1.10888	2.263154e-05
      1.11066	2.239615e-05
      1.11245	2.181179e-05
      1.11424	2.121547e-05
      1.11603	2.060952e-05
      1.11782	2.080297e-05
       1.1196	2.058040e-05
      1.12139	2.003373e-05
      1.12318	1.946233e-05
      1.12497	1.887823e-05
      1.12676	1.830175e-05
      1.12854	1.860249e-05
      1.13033	1.841046e-05
      1.13212	1.786520e-05
      1.13391	1.728037e-05
       1.1357	1.668250e-05
      1.13748	1.692666e-05
      1.13927	1.658775e-05
      1.14106	1.613578e-05
      1.14285	1.562720e-05
      1.14464	1.509624e-05
      1.14642	1.456055e-05
      1.14821	1.495329e-05
         1.15	1.475249e-05
      1.15185	1.424809e-05
      1.15364	1.373234e-05
      1.15542	1.322936e-05
       1.1572	1.354010e-05
      1.15898	1.333716e-05
      1.16077	1.305119e-05
      1.16255	1.265333e-05
      1.16433	1.221595e-05
      1.16612	1.177428e-05
       1.1679	1.228099e-05
      1.16968	1.228003e-05
      1.17147	1.201653e-05
      1.17325	1.163189e-05
      1.17503	1.124482e-05
      1.17682	1.172779e-05
       1.1786	1.196320e-05
      1.18038	1.173217e-05
      1.18217	1.146791e-05
      1.18395	1.127324e-05
      1.18573	1.109245e-05
      1.18752	1.180439e-05
       1.1893	1.212257e-05
      1.19108	1.212873e-05
      1.19287	1.209328e-05
      1.19465	1.280321e-05
      1.19643	1.302803e-05
      1.19822	1.316078e-05
      1.19911	1.337619e-05
          1.2	1.383195e-05
      1.20104	1.441151e-05
      1.20224	1.442552e-05
      1.20356	1.469810e-05
      1.20501	1.519305e-05
      1.20646	1.571065e-05
      1.20787	1.623963e-05
      1.20927	1.674961e-05
      1.21068	1.726036e-05
      1.21208	1.776551e-05
      1.21349	1.826372e-05
      1.21489	1.875414e-05
      1.21624	1.996594e-05
      1.21754	2.089470e-05
      1.21879	2.154355e-05
      1.22004	2.213256e-05
      1.22124	2.338136e-05
      1.22243	2.418260e-05
      1.22358	2.490013e-05
      1.22473	2.567027e-05
      1.22588	2.644002e-05
      1.22698	2.775890e-05
      1.22807	2.891463e-05
      1.22917	2.987109e-05
      1.23027	3.075959e-05
      1.23136	3.217857e-05
      1.23246	3.364918e-05
      1.23355	3.455618e-05
      1.23465	3.572755e-05
      1.23575	3.712763e-05
      1.23684	3.853313e-05
      1.23786	3.990745e-05
      1.23887	4.116732e-05
       1.2398	4.243165e-05
      1.24072	4.413407e-05
      1.24165	4.604769e-05
      1.24249	4.711381e-05
      1.24332	4.849661e-05
      1.24416	4.996894e-05
      1.24499	5.145180e-05
      1.24583	5.293266e-05
      1.24666	5.440934e-05
       1.2475	5.588022e-05
      1.24833	5.734237e-05
      1.24917	5.926034e-05
         1.25	6.127082e-05
      1.25088	6.277472e-05
      1.25175	6.476262e-05
      1.25263	6.682865e-05
      1.25349	6.884306e-05
      1.25432	7.080670e-05
      1.25512	7.271719e-05
      1.25589	7.506732e-05
       1.2566	7.738582e-05
      1.25726	7.902603e-05
      1.25789	8.047211e-05
      1.25848	8.268676e-05
      1.25903	8.438188e-05
      1.25956	8.591519e-05
      1.26006	8.734611e-05
      1.26054	8.923063e-05
        1.261	9.078033e-05
      1.26145	9.219324e-05
      1.26189	9.355269e-05
      1.26233	9.529612e-05
      1.26275	9.704973e-05
      1.26318	9.828671e-05
       1.2636	9.981996e-05
      1.26402	1.013984e-04
      1.26444	1.029529e-04
      1.26487	1.045184e-04
      1.26529	1.060893e-04
      1.26573	1.076801e-04
      1.26617	1.092855e-04
      1.26661	1.109021e-04
      1.26705	1.125086e-04
      1.26747	1.146147e-04
      1.26788	1.163633e-04
      1.26828	1.179805e-04
      1.26866	1.195262e-04
      1.26903	1.213678e-04
      1.26939	1.232700e-04
      1.26974	1.245971e-04
      1.27007	1.261224e-04
      1.27039	1.276559e-04
      1.27071	1.291643e-04
      1.27101	1.306159e-04
       1.2713	1.320216e-04
      1.27159	1.333946e-04
      1.27187	1.347238e-04
      1.27215	1.360226e-04
      1.27242	1.376805e-04
      1.27269	1.391254e-04
      1.27296	1.404795e-04
      1.27323	1.418203e-04
      1.27349	1.434427e-04
      1.27376	1.451434e-04
      1.27404	1.464860e-04
      1.27432	1.480322e-04
      1.27461	1.496860e-04
       1.2749	1.513940e-04
       1.2752	1.531079e-04
      1.27549	1.548385e-04
      1.27579	1.565668e-04
      1.27608	1.582727e-04
      1.27637	1.599743e-04
      1.27666	1.616702e-04
      1.27695	1.633373e-04
      1.27723	1.649963e-04
      1.27751	1.670741e-04
       1.2778	1.688560e-04
      1.27808	1.705259e-04
      1.27836	1.721896e-04
      1.27864	1.738327e-04
      1.27892	1.759187e-04
      1.27921	1.777390e-04
      1.27949	1.794942e-04
      1.27977	1.812368e-04
      1.28006	1.833282e-04
      1.28035	1.855007e-04
      1.28065	1.871501e-04
      1.28095	1.891198e-04
      1.28125	1.912314e-04
      1.28154	1.933378e-04
      1.28181	1.953426e-04
      1.28207	1.972297e-04
      1.28233	1.990607e-04
      1.28258	2.008364e-04
      1.28282	2.025565e-04
      1.28307	2.042443e-04
      1.28332	2.059226e-04
      1.28356	2.078598e-04
      1.28381	2.098659e-04
      1.28406	2.115225e-04
      1.28431	2.133984e-04
      1.28455	2.152834e-04
      1.28479	2.171381e-04
      1.28503	2.189830e-04
      1.28527	2.207990e-04
      1.28551	2.226101e-04
      1.28575	2.244502e-04
        1.286	2.262838e-04
      1.28625	2.281468e-04
       1.2865	2.300365e-04
      1.28674	2.319520e-04
      1.28696	2.341064e-04
      1.28719	2.359463e-04
       1.2874	2.376787e-04
      1.28761	2.393201e-04
      1.28782	2.409425e-04
      1.28803	2.427970e-04
      1.28826	2.445706e-04
      1.28848	2.464011e-04
      1.28869	2.481420e-04
      1.28889	2.501299e-04
      1.28906	2.519670e-04
      1.28921	2.531972e-04
      1.28934	2.544748e-04
      1.28948	2.556811e-04
       1.2896	2.568438e-04
      1.28973	2.579743e-04
      1.28985	2.590773e-04
      1.28998	2.601665e-04
       1.2901	2.612557e-04
      1.29023	2.623429e-04
      1.29035	2.634412e-04
      1.29048	2.645503e-04
      1.29061	2.656698e-04
      1.29074	2.667999e-04
      1.29088	2.679430e-04
      1.29101	2.690828e-04
      1.29114	2.702037e-04
      1.29127	2.713220e-04
       1.2914	2.724381e-04
      1.29153	2.738070e-04
      1.29166	2.749861e-04
      1.29179	2.761272e-04
      1.29192	2.772876e-04
      1.29206	2.784498e-04
      1.29219	2.796308e-04
      1.29233	2.810957e-04
      1.29247	2.823452e-04
      1.29261	2.836036e-04
      1.29276	2.848924e-04
       1.2929	2.861838e-04
      1.29305	2.877239e-04
      1.29319	2.893155e-04
      1.29334	2.904686e-04
      1.29349	2.918483e-04
      1.29363	2.933135e-04
      1.29378	2.947634e-04
      1.29393	2.962234e-04
      1.29408	2.977166e-04
      1.29424	2.992101e-04
       1.2944	3.007386e-04
      1.29456	3.022639e-04
      1.29472	3.038263e-04
      1.29488	3.053823e-04
      1.29505	3.069791e-04
      1.29522	3.085692e-04
      1.29539	3.102071e-04
      1.29556	3.118393e-04
      1.29573	3.134668e-04
       1.2959	3.154508e-04
      1.29606	3.172272e-04
      1.29623	3.188421e-04
      1.29639	3.204540e-04
      1.29656	3.220507e-04
      1.29672	3.239881e-04
      1.29688	3.257194e-04
      1.29705	3.273893e-04
      1.29721	3.290326e-04
      1.29738	3.309160e-04
      1.29754	3.328580e-04
       1.2977	3.344250e-04
      1.29787	3.361745e-04
      1.29803	3.379811e-04
       1.2982	3.397901e-04
      1.29838	3.415988e-04
      1.29856	3.435816e-04
      1.29874	3.455636e-04
      1.29892	3.475411e-04
       1.2991	3.495138e-04
      1.29928	3.514789e-04
      1.29946	3.534352e-04
      1.29964	3.553822e-04
      1.29982	3.576183e-04
          1.3	3.599255e-04
       1.3002	3.617918e-04
      1.30043	3.641509e-04
      1.30066	3.668609e-04
      1.30089	3.696627e-04
      1.30112	3.724551e-04
      1.30135	3.752170e-04
      1.30158	3.779472e-04
       1.3018	3.806569e-04
      1.30202	3.833311e-04
      1.30225	3.859792e-04
      1.30247	3.889873e-04
      1.30268	3.920692e-04
       1.3029	3.946284e-04
      1.30312	3.974833e-04
      1.30333	4.003856e-04
      1.30354	4.032792e-04
      1.30374	4.061565e-04
      1.30394	4.089448e-04
      1.30414	4.116552e-04
      1.30433	4.142916e-04
      1.30452	4.172636e-04
      1.30471	4.202767e-04
      1.30489	4.232395e-04
      1.30508	4.257986e-04
      1.30527	4.287619e-04
      1.30546	4.318541e-04
      1.30565	4.349560e-04
      1.30584	4.381005e-04
      1.30603	4.415582e-04
      1.30622	4.450140e-04
       1.3064	4.483091e-04
      1.30657	4.514839e-04
      1.30675	4.545610e-04
      1.30692	4.580158e-04
      1.30708	4.614962e-04
      1.30725	4.644481e-04
      1.30741	4.676068e-04
      1.30758	4.708155e-04
      1.30774	4.740570e-04
      1.30791	4.773076e-04
      1.30808	4.806049e-04
      1.30825	4.838651e-04
      1.30842	4.871533e-04
       1.3086	4.905715e-04
      1.30877	4.939389e-04
      1.30894	4.972419e-04
      1.30912	5.004931e-04
      1.30928	5.037124e-04
      1.30945	5.072902e-04
      1.30962	5.109154e-04
      1.30979	5.139937e-04
      1.30995	5.173341e-04
      1.31012	5.207229e-04
      1.31028	5.241114e-04
      1.31044	5.275557e-04
       1.3106	5.308476e-04
      1.31076	5.341862e-04
      1.31092	5.374568e-04
      1.31108	5.406628e-04
      1.31124	5.438379e-04
       1.3114	5.469871e-04
      1.31155	5.501604e-04
      1.31171	5.532881e-04
      1.31186	5.563553e-04
      1.31201	5.593837e-04
      1.31216	5.627296e-04
      1.31232	5.661025e-04
      1.31247	5.690107e-04
      1.31262	5.721185e-04
      1.31277	5.753099e-04
      1.31291	5.783698e-04
      1.31306	5.813239e-04
      1.31321	5.845631e-04
      1.31335	5.876869e-04
       1.3135	5.906988e-04
      1.31364	5.936692e-04
      1.31379	5.969416e-04
      1.31393	6.000234e-04
      1.31407	6.029828e-04
      1.31421	6.061959e-04
      1.31435	6.094369e-04
      1.31449	6.123126e-04
      1.31463	6.153645e-04
      1.31477	6.184513e-04
      1.31491	6.215091e-04
      1.31504	6.245445e-04
      1.31518	6.275586e-04
      1.31532	6.304047e-04
      1.31545	6.333748e-04
      1.31559	6.363695e-04
      1.31572	6.394120e-04
      1.31585	6.424128e-04
      1.31599	6.453571e-04
      1.31612	6.482723e-04
      1.31625	6.511592e-04
      1.31638	6.540354e-04
      1.31651	6.569302e-04
      1.31664	6.597806e-04
      1.31677	6.625802e-04
       1.3169	6.653393e-04
      1.31703	6.680671e-04
      1.31716	6.711275e-04
      1.31728	6.742562e-04
      1.31741	6.768423e-04
      1.31754	6.796942e-04
      1.31766	6.826087e-04
      1.31779	6.854931e-04
      1.31791	6.881083e-04
      1.31803	6.908965e-04
      1.31816	6.937335e-04