# Region type : patch outflow
#   Faces  : 61
#   Area   : 1.303507e-04
#        Time	sum(rhoPhi)
         0.01	0.000000e+00
        0.012	-4.102891e-13
     0.014375	2.706583e-08
    0.0171154	2.839461e-07
    0.0201049	6.364887e-07
    0.0234266	8.726867e-07
    0.0267483	9.915315e-07
    0.0300699	1.069343e-06
    0.0333916	1.166423e-06
    0.0367133	1.302794e-06
     0.040035	1.471176e-06
    0.0425262	1.669883e-06
    0.0450175	1.845195e-06
    0.0475087	3.280615e-06
         0.05	4.135117e-06
    0.0527778	4.209237e-06
    0.0555556	4.101238e-06
    0.0583333	5.670923e-06
    0.0611111	6.318266e-06
    0.0638889	6.246852e-06
    0.0668981	6.243122e-06
    0.0699074	8.405203e-06
    0.0729167	9.167863e-06
    0.0759259	8.865714e-06
    0.0789352	1.020404e-05
    0.0819444	1.258512e-05
    0.0849537	1.248613e-05
     0.087963	1.279054e-05
    0.0909722	1.448740e-05
    0.0939815	1.466224e-05
    0.0969907	1.535248e-05
          0.1	1.683609e-05
     0.103125	1.832425e-05
      0.10625	1.821336e-05
     0.109375	1.887102e-05
     0.112277	2.053671e-05
     0.114971	2.039085e-05
      0.11789	2.097350e-05
     0.120566	2.235034e-05
     0.123019	2.368140e-05
     0.125472	2.313423e-05
     0.127925	2.387564e-05
     0.130132	2.510816e-05
      0.13234	2.608048e-05
     0.134547	2.536598e-05
     0.136755	2.572923e-05
     0.138962	2.707202e-05
      0.14117	2.679119e-05
     0.143377	2.711010e-05
     0.145585	2.815903e-05
     0.147057	2.901943e-05
     0.148528	2.826385e-05
         0.15	2.846665e-05
     0.151667	2.909629e-05
     0.153526	2.987317e-05
     0.155546	2.929048e-05
     0.157567	2.952904e-05
     0.159588	3.035524e-05
     0.161512	3.113382e-05
     0.163436	3.021436e-05
     0.165361	3.046628e-05
     0.167285	3.125350e-05
     0.169103	3.198603e-05
     0.171034	3.100912e-05
     0.172965	3.114101e-05
     0.174767	3.185535e-05
     0.176569	3.119990e-05
     0.178372	3.129346e-05
     0.180174	3.181079e-05
     0.181977	3.209386e-05
     0.183779	3.244310e-05
     0.185581	3.159773e-05
     0.187384	3.163155e-05
     0.189186	3.195525e-05
     0.190988	3.223815e-05
     0.192791	3.130010e-05
     0.194593	3.126119e-05
     0.196395	3.160557e-05
     0.198198	3.196311e-05
          0.2	3.097109e-05
     0.201923	3.081773e-05
     0.203846	3.111281e-05
     0.205769	3.143127e-05
     0.207692	3.012980e-05
     0.209615	2.998425e-05
     0.211538	3.029094e-05
     0.213462	2.957951e-05
     0.215491	2.856469e-05
     0.217521	2.884265e-05
     0.219551	2.879959e-05
     0.221581	2.814060e-05
     0.223476	2.729528e-05
     0.225244	2.752608e-05
     0.227012	2.734465e-05
     0.228928	2.678375e-05
     0.230684	2.607058e-05
     0.232294	2.542501e-05
     0.233903	2.580197e-05
     0.235367	2.552065e-05
     0.236697	2.502355e-05
     0.237906	2.444718e-05
     0.239116	2.392620e-05
     0.240204	2.432814e-05
     0.241293	2.398280e-05
     0.242381	2.363421e-05
     0.243469	2.328888e-05
     0.244558	2.286940e-05
     0.245646	2.244945e-05
     0.246735	2.203079e-05
     0.247823	2.160927e-05
     0.248549	2.208760e-05
     0.249274	2.204884e-05
         0.25	2.182233e-05
      0.25082	2.137605e-05
      0.25173	2.098801e-05
     0.252641	2.089678e-05
      0.25357	2.050031e-05
      0.25448	2.016345e-05
     0.255356	1.987939e-05
     0.256198	1.989432e-05
     0.257009	1.974380e-05
      0.25782	1.953687e-05
     0.258616	1.929185e-05
     0.259397	1.906487e-05
     0.260149	1.892823e-05
     0.260901	1.882149e-05
     0.261653	1.873539e-05
      0.26242	1.865111e-05
     0.263219	1.854603e-05
     0.264002	1.842347e-05
     0.264768	1.827084e-05
     0.265517	1.810878e-05
     0.266251	1.792052e-05
     0.266969	1.772712e-05
     0.267672	1.752402e-05
     0.268375	1.732311e-05
     0.269093	1.660621e-05
     0.269829	1.637588e-05
     0.270583	1.627596e-05
     0.271358	1.616562e-05
     0.272176	1.602498e-05
     0.273019	1.587860e-05
     0.273918	1.574004e-05
      0.27485	1.559591e-05
     0.275817	1.543279e-05
     0.276651	1.460222e-05
     0.277381	1.430331e-05
     0.278088	1.416699e-05
     0.278794	1.409444e-05
     0.279526	1.401154e-05
     0.280284	1.387625e-05
     0.281106	1.372902e-05
     0.281964	1.356013e-05
     0.282866	1.337276e-05
     0.283682	1.316171e-05
     0.284424	1.297259e-05
     0.285132	1.228967e-05
     0.285778	1.204861e-05
     0.286397	1.184200e-05
     0.286988	1.168120e-05
     0.287579	1.170258e-05
     0.288171	1.170293e-05
     0.288794	1.137891e-05
     0.289416	1.118682e-05
     0.290078	1.101642e-05
     0.290739	1.087272e-05
     0.291451	1.084396e-05
     0.292164	1.077423e-05
     0.292876	1.031994e-05
     0.293589	1.003304e-05
     0.294301	9.778629e-06
     0.295013	9.619906e-06
     0.295726	9.563625e-06
     0.296438	9.264950e-06
      0.29715	8.955013e-06
     0.297863	8.696928e-06
     0.298575	8.459096e-06
     0.299288	8.274251e-06
          0.3	8.104581e-06
     0.300806	7.949943e-06
     0.301701	7.779591e-06
     0.302687	7.582115e-06
     0.303672	7.345120e-06
     0.304679	7.086100e-06
     0.305687	6.804265e-06
     0.306717	6.514659e-06
     0.307748	6.221642e-06
     0.308778	5.941049e-06
     0.309809	5.680611e-06
     0.310839	5.442569e-06
      0.31187	5.226260e-06
     0.312929	5.027611e-06
     0.313988	4.835369e-06
     0.315047	4.649894e-06
      0.31614	4.467400e-06
     0.317232	4.280352e-06
     0.318362	4.094233e-06
     0.319492	3.904127e-06
     0.320665	3.718170e-06
     0.321839	3.531368e-06
     0.323063	3.351952e-06
     0.324287	3.172842e-06
     0.325573	3.001692e-06
      0.32693	2.828736e-06
     0.328287	2.648970e-06
     0.329644	2.472807e-06
     0.331098	2.303670e-06
     0.332552	2.123397e-06
     0.334006	1.953345e-06
      0.33546	1.778427e-06
     0.336914	1.601660e-06
     0.338368	1.427180e-06
     0.339661	1.257982e-06
     0.340953	1.102719e-06
     0.342245	9.517331e-07
     0.343538	8.063238e-07
      0.34483	6.722021e-07
     0.346123	5.427796e-07
     0.347415	4.230629e-07
     0.348708	3.170939e-07
         0.35	2.179661e-07
     0.351429	1.293688e-07
     0.352995	3.992003e-08
     0.354616	-5.170518e-08
     0.356237	-1.379890e-07
     0.357858	-2.250176e-07
     0.359479	-3.090039e-07
       0.3611	-3.974569e-07
     0.362791	-4.872712e-07
     0.364482	-5.763219e-07
     0.366097	-6.619072e-07
     0.367638	-7.408379e-07
     0.369109	-8.106620e-07
     0.370513	-8.694059e-07
     0.371917	-9.162822e-07
     0.373254	-9.522674e-07
     0.374592	-9.781196e-07
     0.375929	-9.950953e-07
     0.377266	-1.004638e-06
     0.378603	-1.007661e-06
     0.379941	-1.004813e-06
     0.381278	-9.961689e-07
     0.382615	-9.812956e-07
     0.383953	-9.591056e-07
     0.385187	-9.284933e-07
     0.386421	-1.370184e-07
     0.387656	1.215981e-07
     0.388778	1.742791e-07
       0.3899	6.470815e-07
     0.391022	8.499254e-07
     0.392145	3.681260e-07
     0.393267	4.191010e-07
     0.394389	9.573748e-07
     0.395511	1.180227e-06
     0.396633	6.562486e-07
     0.397756	7.142647e-07
     0.398878	1.299897e-06
          0.4	1.521970e-06
      0.40122	9.993238e-07
     0.402439	1.069881e-06
     0.403691	1.750476e-06
     0.404977	2.023928e-06
     0.406341	1.430136e-06
      0.40775	1.528085e-06
     0.409158	1.688255e-06
     0.410519	1.150376e-06
     0.411881	1.176663e-06
     0.413242	2.076024e-06
     0.414656	2.256383e-06
     0.416129	2.382193e-06
     0.417601	3.302239e-06
     0.419144	3.566126e-06
     0.420687	2.930848e-06
      0.42223	3.080344e-06
     0.423772	3.292369e-06
     0.425315	2.715601e-06
     0.426858	2.771486e-06
     0.428401	3.833229e-06
     0.429944	4.067628e-06
     0.431486	3.509540e-06
     0.433029	4.480444e-06
     0.434572	5.256373e-06
     0.436115	4.888186e-06
     0.437658	5.070429e-06
       0.4392	5.723013e-06
     0.440743	6.097323e-06
     0.442286	5.714167e-06
     0.443829	5.919406e-06
     0.445372	6.468707e-06
     0.446914	6.834170e-06
     0.448457	7.398340e-06
         0.45	7.669926e-06
     0.451667	6.969475e-06
     0.453393	7.220804e-06
     0.455119	7.910872e-06
     0.456845	8.357992e-06
     0.458571	8.791747e-06
     0.460298	9.236821e-06
     0.462024	8.307399e-06
     0.463832	8.629571e-06
     0.465641	9.418743e-06
     0.467449	1.005035e-05
     0.469257	9.260985e-06
     0.470965	9.519727e-06
     0.472578	1.016859e-05
     0.474102	1.064314e-05
     0.475625	1.099364e-05
      0.47725	1.129143e-05
     0.478875	1.155832e-05
     0.480636	1.067056e-05
     0.482396	1.078608e-05
     0.483863	1.137171e-05
      0.48533	1.167772e-05
     0.486797	1.204572e-05
     0.488117	1.147112e-05
     0.489438	1.163429e-05
     0.490758	1.188962e-05
     0.492078	1.219076e-05
     0.493398	1.246530e-05
     0.494719	1.275290e-05
     0.496039	1.301280e-05
     0.497029	1.230659e-05
      0.49802	1.238137e-05
      0.49901	1.253727e-05
          0.5	1.274580e-05
     0.501111	1.295960e-05
     0.502333	1.317142e-05
     0.503622	1.335331e-05
     0.504947	1.351873e-05
     0.506272	1.367790e-05
     0.507454	1.286714e-05
     0.508604	1.285590e-05
     0.509722	1.307268e-05
     0.510841	1.315679e-05
       0.5119	1.326863e-05
     0.512929	1.343106e-05
     0.513905	1.364000e-05
      0.51483	1.321615e-05
     0.515668	1.311494e-05
     0.516448	1.313837e-05
     0.517194	1.326403e-05
     0.517923	1.345446e-05
     0.518635	1.347600e-05
     0.519365	1.336896e-05
     0.520094	1.347644e-05
     0.520842	1.355493e-05
      0.52159	1.357547e-05
     0.522357	1.356685e-05
     0.523147	1.355747e-05
     0.523961	1.355278e-05
     0.524801	1.354972e-05
      0.52567	1.354008e-05
     0.526571	1.352086e-05
     0.527508	1.349327e-05
      0.52853	1.346179e-05
     0.529604	1.342888e-05
     0.530677	1.339738e-05
     0.531814	1.336792e-05
     0.532951	1.333666e-05
     0.534168	1.330281e-05
     0.535386	1.326235e-05
     0.536604	1.321646e-05
     0.537944	1.316493e-05
     0.539283	1.310256e-05
     0.540623	1.303499e-05
     0.541962	1.296321e-05
     0.543111	1.288825e-05
     0.544259	1.282122e-05
     0.545407	1.275217e-05
     0.546555	1.268116e-05
     0.547704	1.260827e-05
     0.548852	1.253318e-05
         0.55	1.245527e-05
      0.55125	1.237384e-05
     0.552568	1.228132e-05
     0.553885	1.217921e-05
     0.555203	1.207224e-05
      0.55656	1.196053e-05
     0.557918	1.184044e-05
      0.55932	1.171556e-05
     0.560773	1.158193e-05
     0.562282	1.143887e-05
     0.563791	1.128596e-05
     0.565299	1.112847e-05
     0.566808	1.096584e-05
     0.568251	1.079787e-05
     0.569632	1.063115e-05
     0.571012	1.046518e-05
     0.572392	1.029250e-05
     0.573773	1.011290e-05
      0.57523	9.926267e-06
     0.576687	9.722356e-06
     0.578241	9.511460e-06
     0.579795	9.279942e-06
     0.581479	9.041335e-06
     0.583163	8.776261e-06
     0.584847	8.504099e-06
      0.58653	8.225100e-06
     0.588214	7.939082e-06
     0.589898	7.646003e-06
     0.591581	7.345948e-06
     0.593265	7.039062e-06
     0.594949	6.725447e-06
     0.596633	6.405515e-06
     0.598316	6.079475e-06
          0.6	5.747617e-06
     0.601724	5.409813e-06
     0.603448	5.058738e-06
     0.605172	4.702124e-06
     0.606897	4.340637e-06
     0.608621	3.974607e-06
     0.610345	3.604192e-06
     0.612069	3.229475e-06
     0.613793	2.850667e-06
     0.615517	2.468495e-06
     0.617241	2.083013e-06
     0.618966	1.694976e-06
     0.620599	1.305995e-06
     0.622232	9.399068e-07
     0.623775	5.933099e-07
     0.625318	3.222846e-07
      0.62686	1.091585e-07
     0.628403	-1.022090e-07
     0.630064	-3.086139e-07
     0.631726	-5.215908e-07
     0.633387	-1.068369e-06
     0.635048	-1.446564e-06
     0.636543	-1.853386e-06
     0.637889	-2.340582e-06
       0.6391	-2.604745e-06
     0.640311	-2.952587e-06
     0.641522	-3.542320e-06
     0.642733	-3.937856e-06
     0.643945	-4.249272e-06
     0.645156	-4.441172e-06
     0.646124	-4.636063e-06
       0.6469	-4.766577e-06
     0.647675	-4.717021e-06
      0.64845	-4.947804e-06
     0.648967	-5.130873e-06
     0.649483	-5.214352e-06
         0.65	-5.289585e-06
     0.650588	-5.307194e-06
     0.651247	-5.339271e-06
     0.651975	-5.385032e-06
     0.652775	-5.449148e-06
     0.653618	-5.537679e-06
     0.654477	-5.649831e-06
     0.655388	-5.780429e-06
     0.656337	-5.924685e-06
     0.657352	-6.078608e-06
     0.658475	-6.241341e-06
     0.659696	-6.414590e-06
     0.660996	-6.598444e-06
     0.662254	-6.791644e-06
     0.663513	-6.988801e-06
     0.664729	-7.188229e-06
     0.665988	-7.388464e-06
     0.667349	-7.593001e-06
     0.668709	-7.808147e-06
     0.670013	-8.034204e-06
     0.671213	-8.268715e-06
     0.672364	-8.507014e-06
     0.673427	-8.747452e-06
     0.674411	-8.985980e-06
     0.675359	-9.218784e-06
     0.676272	-9.446124e-06
     0.677184	-9.667650e-06
     0.678097	-9.885400e-06
      0.67901	-1.010052e-05
     0.679964	-1.031338e-05
     0.680918	-1.052757e-05
     0.681872	-1.074269e-05
     0.682879	-1.095838e-05
     0.683886	-1.117864e-05
     0.684893	-1.140249e-05
     0.685972	-1.162854e-05
     0.687051	-1.186043e-05
      0.68813	-1.209517e-05
     0.689209	-1.232923e-05
     0.690408	-1.255975e-05
     0.691607	-1.279105e-05
     0.692806	-1.301880e-05
     0.694005	-1.262608e-05
     0.695204	-1.255853e-05
     0.696403	-1.312238e-05
     0.697602	-1.358380e-05
     0.698801	-1.283239e-05
          0.7	-1.307308e-05
     0.701316	-1.383120e-05
     0.702748	-1.334519e-05
     0.704224	-1.345119e-05
     0.705701	-1.413322e-05
     0.707229	-1.371230e-05
     0.708756	-1.382637e-05
     0.710342	-1.445195e-05
     0.711929	-1.407724e-05
     0.713515	-1.341220e-05
     0.715035	-1.423313e-05
     0.716555	-1.435667e-05
     0.718076	-1.441044e-05
     0.719596	-1.505947e-05
     0.721116	-1.457033e-05
     0.722721	-1.459173e-05
     0.724325	-1.526191e-05
      0.72593	-1.472547e-05
     0.727535	-1.473132e-05
     0.729139	-1.531790e-05
     0.730744	-1.479805e-05
     0.732349	-1.393684e-05
     0.733953	-1.477304e-05
     0.735412	-1.481404e-05
     0.736871	-1.477686e-05
     0.738184	-1.540034e-05
     0.739497	-1.476615e-05
     0.740664	-1.470329e-05
     0.741831	-1.512548e-05
     0.742852	-1.468687e-05
     0.743873	-1.462589e-05
     0.744894	-1.486494e-05
     0.745745	-1.501173e-05
     0.746596	-1.497192e-05
     0.747447	-1.450999e-05
     0.748298	-1.444388e-05
     0.749149	-1.469427e-05
         0.75	-1.485038e-05
     0.750926	-1.435233e-05
      0.75187	-1.427449e-05
     0.752832	-1.449991e-05
     0.753815	-1.461691e-05
     0.754819	-1.410937e-05
     0.755846	-1.403098e-05
     0.756897	-1.432341e-05
     0.758002	-1.390438e-05
     0.759137	-1.336430e-05
     0.760305	-1.365738e-05
     0.761545	-1.361476e-05
     0.762786	-1.314191e-05
     0.764069	-1.339494e-05
       0.7654	-1.389042e-05
     0.766784	-1.317452e-05
     0.768228	-1.300156e-05
     0.769741	-1.343418e-05
     0.771334	-1.271318e-05
     0.772926	-1.251027e-05
     0.774519	-1.282766e-05
     0.776217	-1.215008e-05
     0.777916	-1.189242e-05
     0.779615	-1.215725e-05
     0.781314	-1.146473e-05
     0.783012	-1.038879e-05
     0.784711	-1.106895e-05
      0.78641	-1.074529e-05
     0.788109	-1.045029e-05
     0.789807	-1.096782e-05
     0.791264	-9.932594e-06
      0.79272	-9.514517e-06
     0.794176	-9.872698e-06
     0.795632	-9.080726e-06
     0.797088	-8.913422e-06
     0.798544	-9.161223e-06
          0.8	-9.123427e-06
     0.801613	-8.129663e-06
     0.803226	-7.797782e-06
     0.804839	-8.198782e-06
     0.806452	-7.200258e-06
     0.808007	-6.859123e-06
     0.809562	-6.990407e-06
     0.811118	-6.248172e-06
     0.812613	-5.188941e-06
     0.814108	-5.583337e-06
     0.815604	-5.292493e-06
     0.817099	-4.943021e-06
     0.818595	-5.192255e-06
     0.820165	-4.317145e-06
     0.821735	-3.118143e-06
     0.823306	-3.590356e-06
     0.824876	-3.261128e-06
     0.826446	-2.872431e-06
     0.828129	-3.134683e-06
     0.829811	-2.155722e-06
     0.831493	-1.611511e-06
     0.833176	-1.848885e-06
     0.834858	-8.865551e-07
     0.836372	-5.641374e-07
     0.837887	-8.228438e-07
     0.839401	1.407282e-07
     0.840915	1.393555e-06
     0.842213	1.060053e-06
     0.843511	1.221587e-06
     0.844809	1.872485e-06
     0.846106	2.467187e-06
     0.847404	2.129074e-06
     0.848702	2.477659e-06
         0.85	3.178191e-06
     0.851389	3.660742e-06
     0.852819	3.415424e-06
     0.854248	3.805727e-06
     0.855724	4.515509e-06
       0.8572	5.030896e-06
     0.858676	4.828301e-06
     0.860152	5.233362e-06
     0.861628	5.912105e-06
     0.863049	6.314789e-06
      0.86447	6.829874e-06
     0.865891	6.696037e-06
     0.867374	6.315400e-06
     0.868857	7.365807e-06
      0.87034	7.616729e-06
     0.871823	7.419185e-06
     0.873306	7.554664e-06
     0.874876	8.608284e-06
     0.876447	9.059679e-06
     0.878017	9.020832e-06
     0.879587	9.135301e-06
     0.881157	9.693061e-06
     0.882728	9.832538e-06
     0.884298	1.090398e-05
     0.885868	1.117234e-05
     0.887438	1.111929e-05
     0.889008	1.128055e-05
     0.890579	1.147788e-05
     0.892149	1.172719e-05
     0.893719	1.199407e-05
     0.895289	1.227799e-05
      0.89686	1.347424e-05
      0.89843	1.388311e-05
          0.9	1.381654e-05
     0.901724	1.381010e-05
     0.903512	1.385392e-05
     0.905372	1.510338e-05
     0.907231	1.551146e-05
     0.909091	1.543976e-05
     0.911039	1.543419e-05
     0.912894	1.553479e-05
     0.914661	1.692362e-05
     0.916344	1.718363e-05
     0.918027	1.703153e-05
     0.919549	1.702392e-05
     0.920933	1.765027e-05
     0.922254	1.763857e-05
     0.923516	1.799103e-05
     0.924777	1.816479e-05
     0.926038	1.828070e-05
     0.927299	1.886844e-05
      0.92856	1.915843e-05
     0.929821	1.943594e-05
     0.931083	1.978843e-05
     0.932434	2.013973e-05
     0.933785	2.046835e-05
     0.935136	2.075370e-05
     0.936488	2.101751e-05
     0.937839	2.037607e-05
      0.93919	2.035561e-05
     0.940391	2.088650e-05
     0.941592	2.137427e-05
     0.942793	2.128743e-05
     0.943994	2.168060e-05
     0.945196	2.160173e-05
     0.946397	2.182422e-05
     0.947598	2.169075e-05
     0.948799	2.155224e-05
         0.95	2.152297e-05
     0.951316	2.172813e-05
     0.952503	2.199044e-05
     0.953634	2.180115e-05
     0.954712	2.188248e-05
     0.955766	2.200645e-05
     0.956819	2.209130e-05
     0.957872	2.214710e-05
     0.958952	2.218516e-05
     0.960062	2.221176e-05
     0.961203	2.223673e-05
     0.962415	2.226791e-05
     0.963711	2.231440e-05
     0.965107	2.238322e-05
     0.966624	2.247878e-05
     0.968293	2.260218e-05
     0.970054	2.275159e-05
     0.971926	2.291443e-05
     0.973797	2.308322e-05
     0.975669	2.324076e-05
     0.977541	2.338246e-05
     0.979412	2.350670e-05
     0.981284	2.361473e-05
     0.983156	2.370942e-05
     0.985027	2.379441e-05
     0.986899	2.387259e-05
      0.98877	2.394555e-05
     0.990642	2.401304e-05
     0.992202	2.407307e-05
     0.993761	2.325451e-05
     0.995321	2.304176e-05
     0.996881	2.298833e-05
      0.99844	2.356037e-05
            1	2.277427e-05
      1.00172	2.275717e-05
      1.00351	2.298498e-05
       1.0053	2.310212e-05
      1.00709	2.318003e-05
      1.00888	2.324068e-05
      1.01066	2.214045e-05
      1.01245	2.221272e-05
      1.01416	2.241768e-05
      1.01579	2.256327e-05
      1.01734	2.265164e-05
       1.0189	2.162698e-05
      1.02038	2.154599e-05
      1.02186	2.166979e-05
      1.02334	2.181984e-05
      1.02482	2.189345e-05
       1.0263	2.193592e-05
      1.02778	2.086600e-05
      1.02927	2.063086e-05
      1.03086	2.085572e-05
      1.03246	2.102103e-05
      1.03405	2.108927e-05
      1.03565	2.006183e-05
      1.03724	1.994833e-05
      1.03884	2.004037e-05
      1.04043	2.011205e-05
      1.04203	2.011031e-05
      1.04362	2.008613e-05
      1.04522	1.897826e-05
      1.04681	1.892108e-05
      1.04841	1.903401e-05
         1.05	1.900656e-05
      1.05167	1.896329e-05
      1.05333	1.795705e-05
      1.05506	1.785364e-05
      1.05686	1.784123e-05
      1.05866	1.783050e-05
      1.06038	1.778890e-05
       1.0621	1.773494e-05
      1.06375	1.655497e-05
       1.0654	1.645761e-05
      1.06705	1.648425e-05
      1.06869	1.648411e-05
      1.07043	1.643867e-05
      1.07217	1.547070e-05
      1.07391	1.526650e-05
      1.07565	1.520947e-05
      1.07739	1.518647e-05
      1.07913	1.511132e-05
      1.08087	1.501051e-05
      1.08261	1.488579e-05
      1.08435	1.363925e-05
      1.08609	1.362994e-05
      1.08783	1.345704e-05
      1.08956	1.329407e-05
       1.0913	1.312040e-05
      1.09304	1.294595e-05
      1.09478	1.279936e-05
      1.09652	1.268037e-05
      1.09826	1.256574e-05
          1.1	1.243664e-05
      1.10192	1.154277e-05
      1.10385	1.116652e-05
      1.10569	1.108254e-05
      1.10746	1.109689e-05
       1.1091	1.109891e-05
      1.11062	1.017657e-05
      1.11207	1.008588e-05
      1.11353	9.994312e-06
      1.11499	9.923211e-06
      1.11651	9.834736e-06
      1.11804	9.737569e-06
      1.11963	9.624706e-06
      1.12123	9.493000e-06
      1.12283	9.350949e-06
      1.12443	9.202790e-06
      1.12603	9.051422e-06
      1.12762	8.898530e-06
      1.12922	8.743943e-06
      1.13082	8.586016e-06
      1.13242	8.422645e-06
      1.13402	8.251517e-06
      1.13562	8.071020e-06
      1.13721	7.880386e-06
      1.13881	7.679572e-06
      1.14041	7.469812e-06
      1.14201	7.252838e-06
      1.14361	7.030985e-06
      1.14521	6.806948e-06
       1.1468	6.583261e-06
       1.1484	6.362083e-06
         1.15	6.145524e-06
      1.15179	5.935447e-06
      1.15364	5.708797e-06
      1.15549	5.483288e-06
      1.15735	6.034571e-06
      1.15913	6.235596e-06
       1.1609	6.150232e-06
      1.16268	6.033996e-06
      1.16438	5.872583e-06
      1.16607	5.707776e-06
      1.16769	5.576360e-06
       1.1693	6.343671e-06
      1.17092	6.477032e-06
      1.17245	6.490920e-06
      1.17398	6.491407e-06
      1.17551	6.456775e-06
      1.17704	6.857118e-06
      1.17848	7.149659e-06
      1.17991	7.246724e-06
      1.18135	7.322186e-06
      1.18278	7.376403e-06
      1.18411	7.430978e-06
      1.18543	7.481531e-06
      1.18675	8.231029e-06
      1.18808	8.618640e-06
       1.1894	8.789996e-06
      1.19073	8.935440e-06
      1.19189	9.064560e-06
      1.19305	9.180306e-06
      1.19421	1.001621e-05
      1.19536	1.044237e-05
      1.19652	1.067720e-05
      1.19768	1.089642e-05
      1.19884	1.110189e-05
          1.2	1.131071e-05
      1.20119	1.225858e-05
      1.20238	1.283978e-05
      1.20354	1.320552e-05
       1.2047	1.353945e-05
      1.20587	1.385890e-05
        1.207	1.485179e-05
      1.20813	1.592200e-05
      1.20926	1.600217e-05
      1.21036	1.652269e-05
      1.21146	1.727053e-05
      1.21256	1.798895e-05
      1.21363	1.869423e-05
       1.2147	1.936817e-05
      1.21577	2.004065e-05
      1.21681	2.070755e-05
      1.21785	2.134520e-05
      1.21888	2.197267e-05
      1.21992	2.259141e-05
      1.22096	2.320406e-05
      1.22196	2.446463e-05
      1.22296	2.543374e-05
      1.22396	2.620124e-05
      1.22496	2.693209e-05
      1.22597	2.764598e-05
      1.22693	2.912478e-05
      1.22789	3.007425e-05
      1.22885	3.093333e-05
      1.22981	3.179709e-05
      1.23077	3.303711e-05
      1.23173	3.429701e-05
      1.23265	3.540562e-05
      1.23356	3.638199e-05
      1.23447	3.731523e-05
      1.23539	3.888139e-05
       1.2363	4.010982e-05
      1.23721	4.121230e-05
      1.23813	4.235161e-05
      1.23904	4.400213e-05
      1.23988	4.573594e-05
      1.24073	4.670130e-05
      1.24157	4.812978e-05
      1.24241	4.958160e-05
      1.24326	5.103571e-05
       1.2441	5.248380e-05
      1.24494	5.393955e-05
      1.24578	5.539060e-05
      1.24663	5.683165e-05
      1.24747	5.887150e-05
      1.24831	6.072785e-05
      1.24916	6.236023e-05
         1.25	6.393197e-05
      1.25083	6.626514e-05
      1.25167	6.818753e-05
      1.25249	6.995415e-05
      1.25331	7.171053e-05
      1.25412	7.423726e-05
      1.25493	7.631553e-05
      1.25571	7.829221e-05
      1.25647	8.017199e-05
      1.25721	8.282727e-05
      1.25792	8.495965e-05
      1.25862	8.684004e-05
       1.2593	8.869571e-05
      1.25997	9.133165e-05
      1.26061	9.356022e-05
      1.26125	9.544087e-05
      1.26187	9.726751e-05
      1.26248	9.992213e-05
      1.26307	1.019761e-04
      1.26365	1.038360e-04
      1.26422	1.061517e-04
      1.26478	1.084805e-04
      1.26532	1.106994e-04
      1.26585	1.123322e-04
      1.26638	1.143539e-04
       1.2669	1.164675e-04
       1.2674	1.185582e-04
      1.26789	1.205664e-04
      1.26838	1.225357e-04
      1.26886	1.244667e-04
      1.26933	1.263588e-04
      1.26979	1.282128e-04
      1.27025	1.308208e-04
       1.2707	1.328893e-04
      1.27115	1.346800e-04
      1.27158	1.370230e-04
      1.27201	1.394128e-04
      1.27244	1.411567e-04
      1.27286	1.432452e-04
      1.27327	1.453686e-04
      1.27367	1.474207e-04
      1.27407	1.494079e-04
      1.27446	1.513471e-04
      1.27485	1.532469e-04
      1.27523	1.551079e-04
      1.27561	1.574273e-04
      1.27598	1.595269e-04
      1.27634	1.614741e-04
       1.2767	1.635426e-04
      1.27706	1.656604e-04
      1.27742	1.675976e-04
      1.27776	1.694303e-04
      1.27811	1.715804e-04
      1.27845	1.735580e-04
      1.27878	1.754347e-04
      1.27912	1.772782e-04
      1.27944	1.794716e-04
      1.27977	1.817000e-04
      1.28009	1.834035e-04
      1.28041	1.853240e-04
      1.28072	1.873254e-04
      1.28103	1.893226e-04
      1.28134	1.912782e-04
      1.28164	1.931908e-04
      1.28195	1.950923e-04
      1.28224	1.969520e-04
      1.28254	1.987728e-04
      1.28283	2.005863e-04
      1.28312	2.028592e-04
      1.28341	2.052065e-04
      1.28369	2.067743e-04
      1.28397	2.087131e-04
      1.28424	2.107666e-04
      1.28452	2.127553e-04
      1.28479	2.147287e-04
      1.28506	2.166528e-04
      1.28533	2.185601e-04
       1.2856	2.204172e-04
      1.28586	2.222614e-04
      1.28612	2.244522e-04
      1.28638	2.266978e-04
      1.28664	2.283797e-04
      1.28689	2.303920e-04
      1.28714	2.324196e-04
      1.28739	2.344194e-04
      1.28763	2.363356e-04
      1.28788	2.382363e-04
      1.28812	2.400939e-04
      1.28836	2.422516e-04
       1.2886	2.444437e-04
      1.28884	2.465217e-04
      1.28907	2.482455e-04
       1.2893	2.501732e-04
      1.28953	2.521549e-04
      1.28976	2.542880e-04
      1.28999	2.562694e-04
      1.29022	2.582453e-04
      1.29044	2.601930e-04
      1.29066	2.620396e-04
      1.29088	2.642445e-04
       1.2911	2.665001e-04
      1.29132	2.682125e-04
      1.29154	2.702158e-04
      1.29175	2.722820e-04
      1.29196	2.742834e-04
      1.29217	2.762705e-04
      1.29238	2.782485e-04
      1.29258	2.801615e-04
      1.29279	2.820635e-04
      1.29299	2.839534e-04
      1.29319	2.861388e-04
      1.29339	2.882908e-04
      1.29359	2.900555e-04
      1.29379	2.919833e-04
      1.29399	2.939771e-04
      1.29418	2.958798e-04
      1.29438	2.977863e-04
      1.29457	2.996799e-04
      1.29476	3.015549e-04
      1.29495	3.034136e-04
      1.29514	3.054945e-04
      1.29533	3.076098e-04
      1.29551	3.093022e-04
       1.2957	3.112432e-04
      1.29589	3.132062e-04
      1.29607	3.151574e-04
      1.29624	3.170117e-04
      1.29642	3.188631e-04
       1.2966	3.206997e-04
      1.29678	3.225284e-04
      1.29696	3.246374e-04
      1.29714	3.267810e-04
      1.29731	3.285106e-04
      1.29747	3.300686e-04
      1.29764	3.321891e-04
      1.29781	3.340745e-04
      1.29798	3.358110e-04
      1.29815	3.375438e-04
      1.29832	3.396908e-04
      1.29848	3.419189e-04
      1.29865	3.435229e-04
      1.29882	3.454699e-04
      1.29899	3.474757e-04
      1.29913	3.494602e-04
      1.29928	3.511510e-04
      1.29942	3.528349e-04
      1.29957	3.545056e-04
      1.29971	3.561640e-04
      1.29986	3.578115e-04
          1.3	3.594520e-04
      1.30016	3.614019e-04
      1.30032	3.635968e-04
      1.30048	3.653264e-04
      1.30064	3.672828e-04
       1.3008	3.692906e-04
      1.30096	3.712577e-04
      1.30111	3.731982e-04
      1.30127	3.751251e-04
      1.30142	3.770277e-04
      1.30158	3.789056e-04
      1.30173	3.807655e-04
      1.30188	3.828813e-04
      1.30203	3.850044e-04
      1.30219	3.867555e-04
      1.30234	3.886691e-04
      1.30249	3.906273e-04
      1.30263	3.925395e-04
      1.30278	3.944304e-04
      1.30293	3.963033e-04
      1.30308	3.981561e-04
      1.30322	3.999920e-04
      1.30337	4.018065e-04
      1.30351	4.039740e-04
      1.30366	4.061608e-04
       1.3038	4.077778e-04
      1.30394	4.096456e-04
      1.30408	4.116079e-04
      1.30422	4.135208e-04
      1.30436	4.154176e-04
       1.3045	4.172947e-04
      1.30464	4.191506e-04
      1.30478	4.209813e-04
      1.30492	4.227942e-04
      1.30506	4.245883e-04
      1.30519	4.266638e-04
      1.30533	4.287394e-04
      1.30547	4.304435e-04
       1.3056	4.323002e-04
      1.30573	4.342162e-04
      1.30587	4.360928e-04
        1.306	4.379929e-04
      1.30613	4.398420e-04
      1.30627	4.416270e-04
       1.3064	4.433907e-04
      1.30653	4.454478e-04
      1.30666	4.475131e-04
      1.30679	4.492060e-04
      1.30692	4.510621e-04
      1.30705	4.529716e-04
      1.30718	4.548428e-04
       1.3073	4.566979e-04
      1.30743	4.585889e-04
      1.30756	4.604309e-04
      1.30768	4.622148e-04
      1.30781	4.642438e-04
      1.30793	4.662780e-04
      1.30806	4.680172e-04
      1.30818	4.698877e-04
      1.30831	4.717965e-04
      1.30843	4.736757e-04
      1.30855	4.755918e-04
      1.30867	4.774610e-04
       1.3088	4.792703e-04
      1.30892	4.810554e-04
      1.30904	4.830932e-04
      1.30916	4.851356e-04
      1.30928	4.868895e-04
       1.3094	4.887766e-04
      1.30952	4.906824e-04
      1.30963	4.925697e-04
      1.30975	4.944978e-04
      1.30987	4.963759e-04
      1.30999	4.981899e-04
       1.3101	4.999774e-04
      1.31022	5.021469e-04
      1.31034	5.040500e-04
      1.31045	5.058594e-04
      1.31057	5.076549e-04
      1.31068	5.097934e-04